CC = gcc
SRC = main.c holberton.c
OBJ = $(SRC:.c=.o)
NAME = holberton
CFLAGS = -Wall -Werror -Wextra -pedantic

.PHONY: all clean oclean fclean re

# Generate the holberton executable
all: $(OBJ) m.h
	$(CC) $(OBJ) -o $(NAME)

# Remove temporary files and executable
clean:
	$(RM) -f *~ $(NAME)

# Remove object files
oclean:
	$(RM) -f $(OBJ)

# Remove temporary, executable and objects files
fclean: clean oclean

# Forces recompilation 
re: oclean all
